LAMMPS data file via write_data, version 28 Mar 2023, timestep = 227, units = real

34549 atoms
30 atom types
23321 bonds
49 bond types
12781 angles
115 angle types
2707 dihedrals
266 dihedral types
137 impropers
10 improper types

-39.411283 39.411283 xlo xhi
-34.484872 34.484872 ylo yhi
-32.021667 32.021667 zlo zhi

Masses

1 1.008
2 1.008
3 1.008
4 1.008
5 1.008
6 1.008
7 1.008
8 1.008
9 12.011
10 12.011
11 12.011
12 12.011
13 12.011
14 12.011
15 12.011
16 12.011
17 12.011
18 12.011
19 14.007
20 14.007
21 14.007
22 14.007
23 15.999
24 15.999
25 15.999
26 32.06
27 1.008
28 15.9994
29 35.45
30 22.98977

Pair Coeffs # lj/charmm/coul/long/gpu

1 0.046 0.400014 0.046 0.400014
2 0.046 0.400014 0.046 0.400014
3 0.03 2.42004 0.03 2.42004
4 0.022 2.35197 0.022 2.35197
5 0.028 2.38761 0.028 2.38761
6 0.045 2.38761 0.045 2.38761
7 0.034 2.38761 0.034 2.38761
8 0.024 2.38761 0.024 2.38761
9 0.11 3.56359 0.11 3.56359
10 0.07 3.55005 0.07 3.55005
11 0.032 3.56359 0.01 3.38542
12 0.056 3.58141 0.01 3.38542
13 0.056 3.58141 0.01 3.38542
14 0.078 3.63487 0.01 3.38542
15 0.099 3.31414 0.099 3.31414
16 0.073 3.54578 0.073 3.54578
17 0.07 3.56359 0.07 3.56359
18 0.073 3.54578 0.073 3.54578
19 0.2 3.29633 0.2 2.76179
20 0.2 3.29633 0.2 3.29633
21 0.2 3.29633 0.2 3.29633
22 0.2 3.29633 0.2 3.29633
23 0.12 3.02906 0.12 2.49452
24 0.12 3.02906 0.12 3.02906
25 0.1521 3.15378 0.1521 3.15378
26 0.45 3.56359 0.45 3.56359
27 0.046 0.400014 0.046 0.400014
28 0.1521 3.15057 0.1521 3.15057
29 0.15 4.04468 0.15 4.04468
30 0.0469 2.42993 0.0469 2.42993

Bond Coeffs # harmonic

1 250 1.49
2 250 1.49
3 370 1.345
4 620 1.23
5 305 1.375
6 305 1.375
7 230 1.49
8 350 1.365
9 340 1.08
10 270 1.37
11 334.3 1.411
12 300 1.36
13 340 1.08
14 200 1.522
15 200 1.522
16 200 1.522
17 430 1.36
18 650 1.23
19 525 1.26
20 360 1.385
21 350 1.43
22 270 1.37
23 222.5 1.5
24 222.5 1.538
25 222.5 1.538
26 222.5 1.538
27 309 1.111
28 330 1.08
29 320 1.43
30 200 1.48
31 428 1.42
32 222.5 1.53
33 222.5 1.53
34 222.5 1.528
35 375 1.492
36 309 1.111
37 330 1.08
38 320 1.43
39 200 1.48
40 198 1.818
41 309 1.111
42 322 1.111
43 240 1.816
44 440 0.997
45 480 1
46 537.5 0.976
47 545 0.96
48 403 1.04
49 450 0.9572

Angle Coeffs # charmm

1 52 108 0 0
2 52 108 0 0
3 52 108 0 0
4 52 108 0 0
5 50 109.5 0 0
6 50 107 0 0
7 43.7 110 0 0
8 50 109.5 0 0
9 50 107 0 0
10 50 120 0 0
11 50 120 0 0
12 34 123 0 0
13 40 120 35 2.4162
14 40 120 35 2.4162
15 45.8 122.3 0 0
16 30 120 22 2.1525
17 45.2 120 0 0
18 50 113.2 0 0
19 30 120 22 2.1525
20 51.8 107.5 0 0
21 49.3 107.5 0 0
22 85 106.4 25 2.261
23 30 127 0 0
24 85 112 0 0
25 28 126 0 0
26 65 108 0 0
27 30 120 22 2.1525
28 50 110 0 0
29 130 133.5 0 0
30 130 129.5 0 0
31 52 108 0 0
32 50 109.5 0 0
33 50 107 0 0
34 52 108 0 0
35 52 108 0 0
36 52 108 0 0
37 33 109.5 30 2.163
38 52 108 0 0
39 33 109.5 30 2.163
40 50 120 0 0
41 30 122 22 2.146
42 85 108 0 0
43 95 107.4 0 0
44 30 126.7 0 0
45 28 126 0 0
46 80 116.5 0 0
47 80 121 0 0
48 40 118 50 2.388
49 53.35 111 8 2.561
50 53.35 108.5 8 2.561
51 34.5 110.1 22.53 2.179
52 35 111 0 0
53 70 113.5 0 0
54 75.7 110.1 0 0
55 58.35 113.5 11.16 2.561
56 58.35 113.5 11.16 2.561
57 58.35 113.5 11.16 2.561
58 58.35 114 0 0
59 26.5 110.1 22.53 2.179
60 58.35 113.5 11.16 2.561
61 26.5 110.1 22.53 2.179
62 33.43 110.1 22.53 2.179
63 35 117 0 0
64 30 109.5 20 2.074
65 57.5 106 0 0
66 80 116.5 0 0
67 80 121 0 0
68 50 116.5 50 2.45
69 15 121 50 2.44
70 40 118 50 2.388
71 53.35 114 8 2.561
72 34.5 110.1 22.53 2.179
73 35 111 0 0
74 70 113.5 0 0
75 67.7 110 0 0
76 58.35 113.6 11.16 2.561
77 26.5 110.1 22.53 2.179
78 67.7 110 0 0
79 58 114.5 0 0
80 26.5 110.1 22.53 2.179
81 34.6 110.1 22.53 2.179
82 35 117 0 0
83 30 109.5 20 2.074
84 34 95 0 0
85 40 118 50 2.388
86 35 111 0 0
87 70 113.5 0 0
88 26.5 110.1 22.53 2.179
89 53.35 114 8 2.561
90 34.5 110.1 22.53 2.179
91 35 111 0 0
92 70 113.5 0 0
93 75.7 110.1 0 0
94 34.6 110.1 22.53 2.179
95 32 125 25 2.173
96 85 110.5 25 2.24
97 55 109.5 0 0
98 23 120 0 0
99 45.9 108.89 0 0
100 35.5 109 5.4 1.802
101 45 107.5 35 2.101
102 46.1 111.3 0 0
103 35.5 109 5.4 1.802
104 35.5 108.4 5.4 1.802
105 46.1 111.3 0 0
106 48 108 0 0
107 51.5 107.5 0 0
108 36 115 0 0
109 48 108 0 0
110 44 109.5 0 0
111 32 125 25 2.177
112 55 104.52 0 0
113 80 122.5 0 0
114 75 122.5 50 2.37
115 100 124 70 2.225

Dihedral Coeffs # charmm

1 0.1 1 180 1
2 0.52 2 180 0
3 0.29 3 180 0
4 0.14 1 180 1
5 0.26 2 180 0
6 0.33 3 180 0
7 0.2 3 0 1
8 0.79 1 180 1
9 0.39 2 180 0
10 0.99 3 180 0
11 1.28 1 180 1
12 0.94 2 180 0
13 1.57 3 180 0
14 1.41 1 180 1
15 1.29 2 180 0
16 0.59 3 180 0
17 0.32 1 180 1
18 0.61 2 180 0
19 0.72 3 180 0
20 0.35 1 180 1
21 0.42 2 180 0
22 1.91 3 180 0
23 1.09 1 180 1
24 0.5 2 180 0
25 1.17 3 180 0
26 0.2 3 0 1
27 1.61 1 180 1
28 1.29 2 180 0
29 0.59 3 180 0
30 0.11 1 0 1
31 0.98 2 180 0
32 1.6 3 180 0
33 0.2 3 0 1
34 0.2 3 0 1
35 0.2 1 180 1
36 0 1 0 1
37 0.1 3 0 1
38 0.2 1 180 1
39 0 1 0 1
40 0.2 1 180 1
41 1.8 1 0 1
42 1.8 1 0 1
43 1.8 1 0 1
44 1.8 1 0 1
45 0 1 0 1
46 0 1 0 1
47 3.1 2 180 0.5
48 3.1 2 180 1
49 4.2 2 180 1
50 3.1 2 180 1
51 3 2 180 0.5
52 4.2 2 180 1
53 1.07 1 0 1
54 0.24 2 180 0
55 0.17 3 180 0
56 0 6 0 1
57 0.99 2 180 1
58 3 2 180 0.5
59 4 2 180 1
60 3 2 180 1
61 0.2 3 0 1
62 0.52 1 180 1
63 0.62 2 180 0
64 1.58 3 0 0
65 3 2 180 1
66 5 2 180 0
67 0.03 1 0 1
68 0.55 2 0 0
69 0.39 3 180 0
70 0.01 3 0 1
71 3 2 180 1
72 6.5 2 180 0
73 3.1 2 180 0.5
74 4.2 2 180 1
75 3 2 180 0.5
76 4 2 180 1
77 4 2 180 1
78 2.5 2 180 1
79 0.2 2 180 1
80 1.6 3 180 1
81 0.2 3 0 1
82 0 1 0 1
83 0.2 3 0 1
84 0.28 1 180 1
85 0.5 2 180 0
86 0.38 3 0 0
87 1.84 1 180 1
88 0.84 2 180 0
89 0.39 3 180 0
90 0.19 3 0 1
91 0 1 180 1
92 0.38 2 180 0
93 0.59 3 180 0
94 0.19 3 0 1
95 0.2 3 0 1
96 0.68 1 180 1
97 0.1 2 180 0
98 0.38 3 0 0
99 3 2 180 1
100 3 2 180 1
101 3 2 180 1
102 0.85 2 180 1
103 2.8 2 180 1
104 5 2 180 0
105 0.36 1 180 1
106 0.05 2 0 0
107 0.19 3 180 0
108 0.2 3 0 1
109 6 2 180 0
110 2.6 2 180 1
111 1.6 1 0 1
112 2.5 2 180 0
113 1.6 1 0 1
114 2.5 2 180 0
115 2.5 2 180 1
116 0 1 0 1
117 1.4 1 0 1
118 0.38 1 180 1
119 0.13 2 180 0
120 0.29 3 180 0
121 0.2 3 0 1
122 0.2 3 0 1
123 0 1 0 1
124 0.18 1 0 1
125 0.06 2 0 0
126 0.25 3 0 0
127 0.62 1 180 1
128 0.66 2 180 0
129 0.72 3 180 0
130 0.42 1 180 1
131 0.15 2 180 0
132 0.95 3 180 0
133 0.05 1 0 1
134 0.1 2 180 0
135 0.01 3 180 0
136 0.2 3 0 1
137 0.2 3 0 1
138 0.48 1 180 1
139 0.42 2 180 0
140 0.65 3 0 0
141 0.63 1 180 1
142 0.01 2 0 0
143 0.15 3 0 0
144 0.19 3 0 1
145 0.14 1 180 1
146 0.54 2 0 0
147 0.69 3 0 0
148 0.16 3 0 1
149 0.84 1 0 1
150 0.98 2 180 0
151 1.46 3 0 0
152 0.19 3 0 1
153 1.6 1 0 1
154 2.5 2 180 0
155 2.5 2 180 1
156 2.5 2 180 1
157 4.2 2 180 1
158 1.4 2 180 1
159 0 1 0 1
160 1.4 1 0 1
161 0.2 3 0 1
162 0.12 1 180 1
163 0.36 2 180 0
164 0.41 3 0 0
165 0.2 3 0 1
166 0 1 0 1
167 0.1 3 0 1
168 0.05 6 180 1
169 0.05 6 180 1
170 0.2 3 0 1
171 0.88 1 180 1
172 0 2 180 0
173 1.9 3 0 0
174 0.2 3 0 1
175 0.1 2 180 1
176 0.15 4 0 0
177 0.1 6 180 0
178 0.19 3 0 1
179 0.19 3 0 1
180 0.1 3 0 1
181 0.24 1 180 1
182 0.37 3 0 0
183 0.2 3 0 1
184 0.3 1 0 1
185 0.35 2 0 0
186 1.76 3 0 0
187 1.2 2 180 1
188 2.5 2 180 1
189 2.5 2 180 1
190 0.28 3 0 1
191 0 1 0 1
192 1.4 1 0 1
193 0.05 6 180 1
194 0 1 0 1
195 0.05 6 180 1
196 0 1 0 1
197 1.4 1 0 1
198 0.2 3 0 1
199 0.18 1 0 1
200 0.06 2 0 0
201 0.59 3 0 0
202 0.2 3 0 1
203 0.2 3 0 1
204 0.2 3 0 1
205 0 1 0 1
206 1.33 1 0 1
207 0.18 2 0 0
208 0.32 3 0 0
209 0.2 3 0 1
210 0.28 3 0 1
211 0.05 2 180 1
212 4 2 180 1
213 6.5 2 180 0
214 0.2 3 0 1
215 0.29 1 180 1
216 0.66 2 180 0
217 1.17 3 0 0
218 2.5 2 180 1
219 0 1 0 1
220 0 1 0 1
221 1.4 2 180 1
222 0.4 2 180 1
223 0.14 3 0 1
224 0.2 3 0 1
225 0.2 3 0 1
226 0.2 3 0 1
227 0.2 3 0 1
228 0 3 180 1
229 0 3 180 1
230 0.05 6 180 1
231 0.2 3 0 1
232 0.2 3 0 1
233 0.2 3 0 1
234 0.19 3 0 1
235 0.19 3 0 1
236 0.01 3 0 1
237 0.19 3 0 1
238 0.16 3 0 1
239 0.1 3 0 1
240 0.05 6 180 1
241 0.2 3 0 1
242 0.2 3 0 1
243 0.2 3 0 1
244 0.2 3 0 1
245 0.2 3 0 1
246 0 1 0 1
247 0 1 0 1
248 0.05 6 180 1
249 0.2 3 0 1
250 0.1 3 0 1
251 0 1 0 1
252 0 1 0 1
253 2.4 2 180 1
254 4.2 2 180 1
255 2.4 2 180 1
256 3 2 180 1
257 0.6 1 0 1
258 0.6 1 0 1
259 0.6 1 0 1
260 0 1 0 1
261 0.05 6 180 1
262 0.09 1 0 1
263 0.19 2 180 0
264 0.17 3 0 0
265 0 1 0 1
266 0 1 0 1

Improper Coeffs # harmonic

1 120 0
2 120 0
3 96 0
4 45 0
5 96 0
6 96 0
7 45 0
8 20 0
9 20 0
10 4 0

Atoms # full

856 113 28 -0.834 -38.20067428901916 -33.252763138212906 -30.80023091891897 0 0 0
857 113 27 0.417 -37.43896961902519 -32.658136536462045 -30.784692883147976 0 0 0
858 113 27 0.417 -38.93799646413877 -32.62679260140432 -30.777766973581116 0 0 0
859 114 28 -0.834 -35.72105597893653 -30.791706556451736 -30.79494992089041 0 0 0
860 114 27 0.417 -34.9684688904407 -30.18539251313337 -30.796191867519365 0 0 0
861 114 27 0.417 -36.467071548181174 -30.177447417733028 -30.786180047555057 0 0 0
862 115 28 -0.834 -35.73306014790623 -33.26170275008687 -28.328481619146945 0 0 0
863 115 27 0.417 -34.977450683312064 -32.659095965267056 -28.326781346827786 0 0 0
864 115 27 0.417 -36.4763754912572 -32.643637738333666 -28.322844290304783 0 0 0
865 116 28 -0.834 -38.13918725378873 -30.808212946251913 -28.323111444840105 0 0 0
866 116 27 0.417 -37.39913884119516 -30.18616804691558 -28.323353607887434 0 0 0
867 116 27 0.417 -38.89748920299232 -30.210517498696433 -28.30959890107407 0 0 0
868 117 28 -0.834 -38.165200561075714 -33.271879976359614 -25.857169739665594 0 0 0
869 117 27 0.417 -37.41696124312936 -32.660079145997074 -25.86493366146871 0 0 0
870 117 27 0.417 -38.91574513381846 -32.66332615630836 -25.85976995256116 0 0 0
871 118 28 -0.834 -35.71601255458013 -30.794792452404028 -25.86387482565786 0 0 0
872 118 27 0.417 -34.96659433506266 -30.184351370750992 -25.8580525519762 0 0 0
873 118 27 0.417 -36.46524722605936 -30.18493323507009 -25.85591218772516 0 0 0
1012 165 28 -0.834 -38.1652322412574 -28.323749031057265 -30.7957443512869 0 0 0
1013 165 27 0.417 -37.41603825276175 -27.712749824996024 -30.77170356485908 0 0 0
1014 165 27 0.417 -38.91389308145404 -27.714533674537005 -30.76115591914125 0 0 0
1018 167 28 -0.834 -35.73124173668301 -28.312648221233285 -28.333777641448084 0 0 0
1019 167 27 0.417 -34.976630841449335 -27.70868116671972 -28.321901591318888 0 0 0
1020 167 27 0.417 -36.47459175596926 -27.695240581631214 -28.315441776031033 0 0 0
1024 169 28 -0.834 -38.21629377459395 -28.301123034116134 -25.885832347328535 0 0 0
1025 169 27 0.417 -37.44913252539034 -27.71350407732565 -25.861282778449404 0 0 0
1026 169 27 0.417 -38.94608320143855 -27.66825897891579 -25.844640300844905 0 0 0
3040 841 28 -0.834 -33.27529955458367 -33.26570286654884 -30.788895231647192 0 0 0
3041 841 27 0.417 -32.52261339486474 -32.65952102398986 -30.790272829492345 0 0 0
3042 841 27 0.417 -34.02150799171363 -32.65152161822661 -30.789910877777483 0 0 0
3049 844 28 -0.834 -33.26833344940441 -30.791815782240036 -28.32910047553773 0 0 0
3050 844 27 0.417 -32.51813874459904 -30.18275228696359 -28.32545381596022 0 0 0
3051 844 27 0.417 -34.0168479573427 -30.18064171242895 -28.325579729494383 0 0 0
3052 845 28 -0.834 -33.27439766084689 -33.26380825366112 -25.863665534215528 0 0 0
3053 845 27 0.417 -32.521605413871676 -32.65772890130255 -25.86099340976127 0 0 0
3054 845 27 0.417 -34.02055039994018 -32.64955008384895 -25.862152668581697 0 0 0
3196 893 28 -0.834 -33.256436300519184 -28.311840734811135 -30.787980368097333 0 0 0
3197 893 27 0.417 -32.512227265389974 -27.695364660961566 -30.789670543181128 0 0 0
3198 893 27 0.417 -34.01046025465439 -27.707578539605098 -30.78973368153712 0 0 0
3208 897 28 -0.834 -33.27309973762339 -28.310360014155613 -25.871151122981676 0 0 0
3209 897 27 0.417 -32.52227233869591 -27.70216898236371 -25.861851726309755 0 0 0
3210 897 27 0.417 -34.020397981301926 -27.69729222669322 -25.85976642911285 0 0 0
3043 842 28 -0.834 -30.811273469619845 -30.787545643026835 -30.789547250081718 0 0 0
3044 842 27 0.417 -30.06414852316308 -30.17512295596281 -30.79209704364255 0 0 0
3045 842 27 0.417 -31.56298541460905 -30.179970851094083 -30.791889633548887 0 0 0
3046 843 28 -0.834 -30.82061174597827 -33.26524164689358 -28.32804649112933 0 0 0
3047 843 27 0.417 -30.068832172881013 -32.65815118805128 -28.323615404169217 0 0 0
3048 843 27 0.417 -31.56779263736634 -32.65224324176675 -28.32532855533393 0 0 0
3055 846 28 -0.834 -30.815962905076777 -30.790352507322396 -25.870991664710143 0 0 0
3056 846 27 0.417 -30.066931624899325 -30.18028817343507 -25.856571218539322 0 0 0
3057 846 27 0.417 -31.56569118578109 -30.180613666794738 -25.859431084603322 0 0 0
3202 895 28 -0.834 -30.797341903582566 -28.303659477541927 -28.327976897329055 0 0 0
3203 895 27 0.417 -30.05670972424438 -27.683363589786943 -28.328910578881793 0 0 0
3204 895 27 0.417 -31.554897752001782 -27.703303553094187 -28.327713371040293 0 0 0
5224 1569 28 -0.834 -28.364534550170635 -33.26285018611591 -30.79024071536913 0 0 0
5225 1569 27 0.417 -27.613835917293194 -32.65479943885509 -30.789959731423604 0 0 0
5226 1569 27 0.417 -29.11301351670655 -32.651420015449204 -30.789955282747805 0 0 0
5227 1570 28 -0.834 -25.880502653055178 -30.771380498398873 -30.79017903880349 0 0 0
5229 1570 27 0.417 -26.64128683484891 -30.17508849123538 -30.79221910438691 0 0 0
5230 1571 28 -0.834 -25.90750949435837 -33.259340779763065 -28.32944362903927 0 0 0
5232 1571 27 0.417 -26.65649306207626 -32.64864986291741 -28.321709873628087 0 0 0
5233 1572 28 -0.834 -28.352492383109094 -30.783388236579434 -28.331513112897944 0 0 0
5234 1572 27 0.417 -27.608392300421976 -30.167731886138473 -28.326809779771768 0 0 0
5235 1572 27 0.417 -29.107407782025618 -30.179804929614452 -28.32550166833235 0 0 0
5236 1573 28 -0.834 -28.364413840425474 -33.263872073759444 -25.868187849574262 0 0 0
5237 1573 27 0.417 -27.613303205532286 -32.65620656867628 -25.85727016493071 0 0 0
5238 1573 27 0.417 -29.112441830081217 -32.65205474610519 -25.857554654487608 0 0 0
5239 1574 28 -0.834 -25.89610968258726 -30.779936133403908 -25.871677330191662 0 0 0
5241 1574 27 0.417 -26.652184096241015 -30.17786731306156 -25.858508668910353 0 0 0
5380 1621 28 -0.834 -28.32168295361413 -28.293123212090215 -30.78802814300388 0 0 0
5381 1621 27 0.417 -27.589232036980228 -27.663185142728413 -30.787174128709655 0 0 0
5382 1621 27 0.417 -29.087136447554418 -27.70279161233464 -30.791633774636747 0 0 0
5386 1623 28 -0.834 -25.846466844060867 -28.280915496790215 -28.323898599321716 0 0 0
5388 1623 27 0.417 -26.616619056423932 -27.69650552928515 -28.332831677908754 0 0 0
5392 1625 28 -0.834 -28.333285602920505 -28.296424639842105 -25.8663106117791 0 0 0
5393 1625 27 0.417 -27.597169532085278 -27.67144267133999 -25.875530380732723 0 0 0
5394 1625 27 0.417 -29.095231673151716 -27.701386298456203 -25.867780628533918 0 0 0
5228 1570 27 0.417 -25.142067088031396 -30.149033897594737 -30.789950792533357 0 0 0
5231 1571 27 0.417 -25.15693698605282 -32.651382838858595 -28.326229217659378 0 0 0
5240 1574 27 0.417 -25.15303313695751 -30.16351366859195 -25.86887682124636 0 0 0
5387 1623 27 0.417 -25.11911671320895 -27.645306664950592 -28.328819040552496 0 0 0
7408 2297 28 -0.834 -23.445240102785895 -33.24965083086072 -30.787194087422378 0 0 0
7409 2297 27 0.417 -22.69415804629962 -32.64260322980987 -30.7921283397361 0 0 0
7410 2297 27 0.417 -24.19446482459889 -32.63929699636185 -30.787480477302317 0 0 0
7411 2298 28 -0.834 -20.959947200826498 -30.762437394028176 -30.798200706987604 0 0 0
7412 2298 27 0.417 -20.2191424893342 -30.14395019037729 -30.765405964778672 0 0 0
7413 2298 27 0.417 -21.7189009832549 -30.16393684102022 -30.790937854009886 0 0 0
7414 2299 28 -0.834 -20.988295834074346 -33.245851667904645 -28.315930891602672 0 0 0
7415 2299 27 0.417 -20.23265695502822 -32.645083281296735 -28.33828533617115 0 0 0
7416 2299 27 0.417 -21.733637984038044 -32.631239504550535 -28.32568030361245 0 0 0
7417 2300 28 -0.834 -23.421550407132028 -30.764612768484646 -28.326680310274725 0 0 0
7418 2300 27 0.417 -22.682177076352463 -30.14398611604667 -28.33059262751778 0 0 0
7419 2300 27 0.417 -24.181750737449995 -30.16755222042761 -28.330170089585064 0 0 0
7420 2301 28 -0.834 -23.45158034106474 -33.25676420903833 -25.86340833847807 0 0 0
7421 2301 27 0.417 -22.698759032167892 -32.65192151763924 -25.869869097197324 0 0 0
7422 2301 27 0.417 -24.19875502630423 -32.644079962784815 -25.856741343688675 0 0 0
7423 2302 28 -0.834 -20.95740022125834 -30.752959883253556 -25.860459238879265 0 0 0
7424 2302 27 0.417 -20.21638816279097 -30.1347025693028 -25.870095545967207 0 0 0
7425 2302 27 0.417 -21.716585498678253 -30.15468993858317 -25.868246411270587 0 0 0
7564 2349 28 -0.834 -23.389717543125553 -28.283304201242643 -30.798732293396167 0 0 0
7565 2349 27 0.417 -22.661324530188754 -27.64976945041116 -30.761598304009368 0 0 0
7566 2349 27 0.417 -24.158628899339334 -27.697258237043794 -30.78360817863833 0 0 0
7570 2351 28 -0.834 -20.8971694809673 -28.267131385901816 -28.34463096850765 0 0 0
7571 2351 27 0.417 -20.176651271055448 -27.624927422753803 -28.288878258235798 0 0 0
7572 2351 27 0.417 -21.673340684195583 -27.690854242679453 -28.318485389652977 0 0 0
7576 2353 28 -0.834 -23.363835710625395 -28.262129328082445 -25.857728998134718 0 0 0
7577 2353 27 0.417 -22.640494664370305 -27.621946866483043 -25.869450363596158 0 0 0
7578 2353 27 0.417 -24.13778893534058 -27.682973350915617 -25.8835166984262 0 0 0
9586 3023 28 -0.834 -18.533828633936533 -33.244575238924355 -30.774498198499465 0 0 0
9588 3023 27 0.417 -19.27047392286918 -32.619989101627375 -30.782684857343305 0 0 0
9595 3026 28 -0.834 -18.502970974591086 -30.752956227982438 -28.34326048594268 0 0 0
9597 3026 27 0.417 -19.255623839977925 -30.146930419620148 -28.32171775293489 0 0 0
9598 3027 28 -0.834 -18.524855422769733 -33.24178293197386 -25.8431891236858 0 0 0
9600 3027 27 0.417 -19.266233744644378 -32.6234742127971 -25.87101590497187 0 0 0
9742 3075 28 -0.834 -18.49310345310768 -28.2821004221993 -30.849803969386933 0 0 0
9744 3075 27 0.417 -19.25834948624048 -27.702396640581302 -30.73272834124973 0 0 0
9754 3079 28 -0.834 -18.420800351192046 -28.26088301920212 -25.881165867495955 0 0 0
9756 3079 27 0.417 -19.197086257442677 -27.684530014682736 -25.86114594155104 0 0 0
9587 3023 27 0.417 -17.768941918253564 -32.65543412447411 -30.79103772224785 0 0 0
9589 3024 28 -0.834 -16.062703029891733 -30.76434329092733 -30.842695860852004 0 0 0
9590 3024 27 0.417 -15.312100545941316 -30.17377361374572 -30.704599316680195 0 0 0
9591 3024 27 0.417 -16.812484461218066 -30.161589491976365 -30.75409435295031 0 0 0
9592 3025 28 -0.834 -16.07072894603319 -33.244415227701296 -28.302627388717273 0 0 0
9593 3025 27 0.417 -15.298747697448167 -32.66492757759892 -28.334160489530007 0 0 0
9594 3025 27 0.417 -16.801039326463457 -32.61361014646534 -28.32656213651457 0 0 0
9596 3026 27 0.417 -17.755103524002752 -30.14546816788132 -28.28455048384662 0 0 0
9599 3027 27 0.417 -17.764327769719607 -32.64826291209367 -25.883659038762577 0 0 0
9601 3028 28 -0.834 -16.039605498450953 -30.747799147274446 -25.876744272527123 0 0 0
9602 3028 27 0.417 -15.280699388995108 -30.15149319166383 -25.83344002203633 0 0 0
9603 3028 27 0.417 -16.78227402422486 -30.130290922003965 -25.846720954612422 0 0 0
9743 3075 27 0.417 -17.760894755265163 -27.667464187093437 -30.712105835605797 0 0 0
9748 3077 28 -0.834 -16.010259962857447 -28.28171086149481 -28.391067064813008 0 0 0
9749 3077 27 0.417 -15.28829973728069 -27.644508856430075 -28.297584026891688 0 0 0
9750 3077 27 0.417 -16.783871394386438 -27.71852094203491 -28.252444442102863 0 0 0
9755 3079 27 0.417 -17.699589044708624 -27.616384155944747 -25.831549324685565 0 0 0
11722 3735 28 -0.834 -13.616218495028795 -33.25724260967313 -30.747565752610726 0 0 0
11723 3735 27 0.417 -12.835477401326465 -32.691689996702124 -30.804962000425935 0 0 0
11724 3735 27 0.417 -14.337069902298998 -32.61634039245404 -30.77113247085792 0 0 0
11727 3736 27 0.417 -11.870033002452017 -30.124806303283734 -30.721573595197246 0 0 0
11730 3737 27 0.417 -11.862102219543829 -32.61884574321961 -28.339421757534577 0 0 0
11731 3738 28 -0.834 -13.61805829442488 -30.76864987327664 -28.37174547438144 0 0 0
11732 3738 27 0.417 -12.844405702792383 -30.198215635901448 -28.2841878256716 0 0 0
11733 3738 27 0.417 -14.345142810617356 -30.142035788177278 -28.264359162917483 0 0 0
11734 3739 28 -0.834 -13.610578487916854 -33.25017872522357 -25.826727918193676 0 0 0
11735 3739 27 0.417 -12.827033272256292 -32.68904174773416 -25.89310388239132 0 0 0
11736 3739 27 0.417 -14.328677832643278 -32.60791041011459 -25.879633903562944 0 0 0
11739 3740 27 0.417 -11.865440076851433 -30.164864308075764 -25.818985660943 0 0 0
11878 3787 28 -0.834 -13.554069878435827 -28.239360246576275 -30.877194430784733 0 0 0
11879 3787 27 0.417 -12.83304232461973 -27.59851843278996 -30.81336028055524 0 0 0
11880 3787 27 0.417 -14.325589228712868 -27.683272959442178 -30.701940374013123 0 0 0
11886 3789 27 0.417 -11.879632802246352 -27.707307464719975 -28.36244579826984 0 0 0
11890 3791 28 -0.834 -13.631197409482207 -28.34120432483398 -25.897954081345524 0 0 0
11891 3791 27 0.417 -12.896134109395705 -27.714265635061913 -25.886880520057428 0 0 0
11892 3791 27 0.417 -14.39228179623746 -27.7503363674938 -25.82576189154627 0 0 0
11725 3736 28 -0.834 -11.156557645635543 -30.76558790730354 -30.828222396482712 0 0 0
11726 3736 27 0.417 -10.368946071440185 -30.210991180335395 -30.770561854774876 0 0 0
11728 3737 28 -0.834 -11.149816883485732 -33.263243329618895 -28.253723893727308 0 0 0
11729 3737 27 0.417 -10.36161215315175 -32.71808913810603 -28.376697407997217 0 0 0
11737 3740 28 -0.834 -11.138199974737143 -30.796920928130362 -25.870639923482283 0 0 0
11738 3740 27 0.417 -10.364792340433771 -30.21823226595843 -25.88731483623833 0 0 0
11884 3789 28 -0.834 -11.102129348278682 -28.2795460703828 -28.354405696313872 0 0 0
11885 3789 27 0.417 -10.382677840946982 -27.635986924486133 -28.40165036802534 0 0 0
13750 4411 28 -0.834 -8.663302440851895 -33.25755655118381 -30.637971852077595 0 0 0
13751 4411 27 0.417 -7.884245751564882 -32.735644203054875 -30.871026083248672 0 0 0
13752 4411 27 0.417 -9.385401027264239 -32.645889885543156 -30.823911745715897 0 0 0
13753 4412 28 -0.834 -6.1849415283956315 -30.809025926904905 -30.710268613669424 0 0 0
13754 4412 27 0.417 -5.407762189161488 -30.248051772180215 -30.811862257265428 0 0 0
13755 4412 27 0.417 -6.909322814552126 -30.17441676141637 -30.764772376403766 0 0 0
13756 4413 28 -0.834 -6.195688087891486 -33.25110505439722 -28.15322447389455 0 0 0
13757 4413 27 0.417 -5.426428872995848 -32.73683936048258 -28.429769492037686 0 0 0
13758 4413 27 0.417 -6.928724912968273 -32.676618118631595 -28.405613526899444 0 0 0
13759 4414 28 -0.834 -8.674314277197912 -30.798312079375233 -28.30123562402671 0 0 0
13760 4414 27 0.417 -7.889362576266884 -30.242022435161665 -28.377582939320785 0 0 0
13761 4414 27 0.417 -9.388234860691622 -30.149851064552823 -28.288209072832508 0 0 0
13762 4415 28 -0.834 -8.685168067634576 -33.26698459066051 -25.764966674591044 0 0 0
13763 4415 27 0.417 -7.898074904436918 -32.73986540418805 -25.954996723567344 0 0 0
13764 4415 27 0.417 -9.397734129766967 -32.63475739852254 -25.9161231977976 0 0 0
13765 4416 28 -0.834 -6.170328987558488 -30.832006006171376 -25.806305433316368 0 0 0
13766 4416 27 0.417 -5.424590441161254 -30.229719558064605 -25.90925328445868 0 0 0
13767 4416 27 0.417 -6.928009063709006 -30.236733167450755 -25.84289646064395 0 0 0
13906 4463 28 -0.834 -8.606521669421802 -28.29963397463953 -30.844108609270315 0 0 0
13907 4463 27 0.417 -7.872420796579729 -27.67241606049074 -30.810358173340063 0 0 0
13908 4463 27 0.417 -9.369738672922928 -27.7094505384633 -30.86415652621053 0 0 0
13912 4465 28 -0.834 -6.155036606895594 -28.343011913985272 -28.402923007782586 0 0 0
13913 4465 27 0.417 -5.433775782074063 -27.774540984695022 -28.106653491104268 0 0 0
13914 4465 27 0.417 -6.913298963175871 -27.74876894626924 -28.35617512329333 0 0 0
13918 4467 28 -0.834 -8.714907064149033 -28.343410884184344 -25.87466034694084 0 0 0
13919 4467 27 0.417 -7.965437168922007 -27.74897840157706 -25.75093774857005 0 0 0
13920 4467 27 0.417 -9.447951956498239 -27.725065497521612 -25.979802185217064 0 0 0
15723 5068 27 0.417 -4.472419862996105 -32.72128780731781 -30.892307488385345 0 0 0
15732 5071 27 0.417 -4.441448638178359 -30.25870932314325 -28.345361686635908 0 0 0
15735 5072 27 0.417 -4.481094370560697 -32.7034433582557 -25.97342796978673 0 0 0
15891 5124 27 0.417 -4.41992040949159 -27.741769681285927 -25.671630896525517 0 0 0
15879 5120 27 0.417 -4.330042834801971 -27.88110263900583 -30.7054020977358 0 0 0
15721 5068 28 -0.834 -3.714119151908074 -33.22291690282977 -30.567233271769382 0 0 0
15722 5068 27 0.417 -2.9684840374297945 -32.68724319602454 -30.86359323621042 0 0 0
15724 5069 28 -0.834 -1.1885289607630305 -30.789086118751626 -30.789748328776355 0 0 0
15725 5069 27 0.417 -0.46952701980776257 -30.1494746309299 -30.710625061394857 0 0 0
15726 5069 27 0.417 -1.9664127395445472 -30.217549376595123 -30.840471360544033 0 0 0
15727 5070 28 -0.834 -1.2118454568288959 -33.242257143448754 -28.238402027116482 0 0 0
15728 5070 27 0.417 -0.5067366072278602 -32.59021013823266 -28.329075399099533 0 0 0
15729 5070 27 0.417 -2.002336186059047 -32.72072773472971 -28.43221949300469 0 0 0
15730 5071 28 -0.834 -3.6715064851837735 -30.827988133371903 -28.225844192726857 0 0 0
15731 5071 27 0.417 -2.9386433178276765 -30.222746332520714 -28.38249688638297 0 0 0
15733 5072 28 -0.834 -3.728109139456963 -33.260530703469065 -25.736795045210126 0 0 0
15734 5072 27 0.417 -2.978932401529919 -32.69187959065722 -25.95155949877844 0 0 0
15736 5073 28 -0.834 -1.1736160201435808 -30.840422405077284 -25.815713069861687 0 0 0
15737 5073 27 0.417 -0.45664956832642756 -30.206834573170113 -25.933256333475775 0 0 0
15738 5073 27 0.417 -1.9573512078317958 -30.286664691279086 -25.920409220356753 0 0 0
15877 5120 28 -0.834 -3.5522364055182343 -28.43706874644661 -30.833104143006874 0 0 0
15878 5120 27 0.417 -2.8365108875706997 -27.791507257723268 -30.796367720531325 0 0 0
15883 5122 28 -0.834 -1.0117331829089562 -28.4520292793454 -28.3355306130444 0 0 0
15884 5122 27 0.417 -0.2988314448618371 -27.80026185609415 -28.32312701110522 0 0 0
15885 5122 27 0.417 -1.776542217764558 -27.913662805058603 -28.094786284730887 0 0 0
15889 5124 28 -0.834 -3.662572308942958 -28.265552349512987 -25.961187942774124 0 0 0
15890 5124 27 0.417 -2.925518750288903 -27.767357270675515 -25.586749313910435 0 0 0
17690 5725 28 -0.834 1.283499523184915 -33.20448300486099 -30.850403676836592 0 0 0
17691 5725 27 0.417 1.973506501453068 -32.55606392025958 -30.663676075874108 0 0 0
17692 5725 27 0.417 0.4792406889360403 -32.67036694209912 -30.802005718218346 0 0 0
17699 5728 28 -0.834 1.1915219911992996 -30.78031833673907 -28.377583603609327 0 0 0
17700 5728 27 0.417 1.9396046522426083 -30.181867473702916 -28.252108614668554 0 0 0
17701 5728 27 0.417 0.44557479974216063 -30.16326037596882 -28.400995493855245 0 0 0
17702 5729 28 -0.834 1.2448384710193627 -33.233913778442485 -25.878664397922613 0 0 0
17703 5729 27 0.417 1.9482315091713067 -32.5764707089367 -25.804697590778122 0 0 0
17704 5729 27 0.417 0.4556353103525193 -32.67725090811251 -25.935632066919617 0 0 0
17846 5777 28 -0.834 1.2664614687419595 -28.456779218277717 -30.834533118096978 0 0 0
17847 5777 27 0.417 2.052312188213345 -27.895758960691115 -30.806955721524766 0 0 0
17848 5777 27 0.417 0.5601813557837627 -27.796208684347548 -30.807821383350436 0 0 0
17858 5781 28 -0.834 1.4650430469470492 -28.406402217431193 -25.832925528920782 0 0 0
17859 5781 27 0.417 2.187701874551624 -27.766455488396574 -25.907833200182864 0 0 0
17860 5781 27 0.417 0.7102026004142333 -27.824500235187777 -25.67327386467887 0 0 0
17693 5726 28 -0.834 3.587736291803762 -30.73525710615669 -30.94382135142835 0 0 0
17694 5726 27 0.417 4.336697664151926 -30.243306495495602 -30.57987794178192 0 0 0
17695 5726 27 0.417 2.850217520700337 -30.135592564125812 -30.765011587755634 0 0 0
17696 5727 28 -0.834 3.681941338490918 -33.18910295742503 -28.435540816554195 0 0 0
17697 5727 27 0.417 4.399712824608616 -32.6247477531512 -28.121265588614108 0 0 0
17698 5727 27 0.417 2.9084501505114977 -32.628451885633254 -28.289027996217815 0 0 0
17705 5730 28 -0.834 3.624552090847131 -30.73086547182389 -25.982932535785782 0 0 0
17706 5730 27 0.417 4.387143010759036 -30.1849348955635 -25.75139964493395 0 0 0
17707 5730 27 0.417 2.8991959465994492 -30.09084721917845 -25.93108125307594 0 0 0
17852 5779 28 -0.834 3.7210705307780656 -28.3307470592357 -28.39705398979227 0 0 0
17853 5779 27 0.417 4.499890756620802 -27.760155501815856 -28.33281119661173 0 0 0
17854 5779 27 0.417 3.004187943360585 -27.682522906867266 -28.320194729252037 0 0 0
19658 6381 28 -0.834 6.123545334637044 -33.17027996108693 -30.921846938538494 0 0 0
19659 6381 27 0.417 6.862824593336713 -32.69073543909511 -30.527157873383704 0 0 0
19660 6381 27 0.417 5.367772564843599 -32.64387225345448 -30.631721376771953 0 0 0
19661 6382 28 -0.834 8.550684294892747 -30.514379166574145 -31.095927809429927 0 0 0
19662 6382 27 0.417 9.301036215856053 -30.25871290500241 -30.542797154656725 0 0 0
19663 6382 27 0.417 7.8159972737463645 -30.08966820424508 -30.63292896381587 0 0 0
19664 6383 28 -0.834 8.623524585911518 -33.04155353569436 -28.581954138515965 0 0 0
19665 6383 27 0.417 9.374285420040561 -32.65254381754568 -28.113827469557982 0 0 0
19666 6383 27 0.417 7.8785302507342925 -32.64289572047521 -28.113178656654476 0 0 0
19667 6384 28 -0.834 6.091228031189551 -30.61868569117819 -28.589976381641836 0 0 0
19668 6384 27 0.417 6.840084974268285 -30.22755946394682 -28.119917192932267 0 0 0
19669 6384 27 0.417 5.359266520775946 -30.0611601467839 -28.293723869023605 0 0 0
19670 6385 28 -0.834 6.179263900987417 -33.03013932118682 -26.07224981214624 0 0 0
19671 6385 27 0.417 6.904930127782237 -32.5790636322045 -25.622583915472166 0 0 0